 Gaussian 09, Revision C.01,
 Gaussian 09:  EM64L-G09RevC.01 23-Sep-2011

 ---------------------------------------
 # opt=modredundant rb3lyp/6-311+g(2d,p)
 ---------------------------------------

 99/9=1/99;
 -------------------
 Title Card Required
 -------------------
 Charge =  0 Multiplicity = 1

 SCF Done:  E(RB3LYP) =  -330.628192580     A.U. after   12 cycles
 SCF Done:  E(RB3LYP) =  -330.628193543     A.U. after    7 cycles
 SCF Done:  E(RB3LYP) =  -330.628193619     A.U. after    6 cycles
 Optimization completed.
    -- Stationary point found.
 SCF Done:  E(RB3LYP) =  -330.622247676     A.U. after   10 cycles
 SCF Done:  E(RB3LYP) =  -330.626443009     A.U. after   10 cycles
 SCF Done:  E(RB3LYP) =  -330.626939377     A.U. after    9 cycles
 SCF Done:  E(RB3LYP) =  -330.626959440     A.U. after    8 cycles
 SCF Done:  E(RB3LYP) =  -330.626961166     A.U. after    7 cycles
 SCF Done:  E(RB3LYP) =  -330.626961505     A.U. after    7 cycles
 Optimization completed.
 SCF Done:  E(RB3LYP) =  -330.618871030     A.U. after   10 cycles
 SCF Done:  E(RB3LYP) =  -330.621211111     A.U. after   10 cycles
 SCF Done:  E(RB3LYP) =  -330.626558046     A.U. after   10 cycles
 SCF Done:  E(RB3LYP) =  -330.626894164     A.U. after    9 cycles
 SCF Done:  E(RB3LYP) =  -330.626901815     A.U. after    8 cycles
 SCF Done:  E(RB3LYP) =  -330.626901991     A.U. after    7 cycles
    -- Stationary point found.
 SCF Done:  E(RB3LYP) =  -330.623502113     A.U. after   10 cycles
 SCF Done:  E(RB3LYP) =  -330.627964908     A.U. after   10 cycles
 SCF Done:  E(RB3LYP) =  -330.628191587     A.U. after    9 cycles
 SCF Done:  E(RB3LYP) =  -330.628193478     A.U. after    7 cycles
 SCF Done:  E(RB3LYP) =  -330.628193530     A.U. after    6 cycles
 Optimization completed.
    -- Stationary point found.

                         Standard orientation:
 ---------------------------------------------------------------------
 Center     Atomic      Atomic             Coordinates (Angstroms)
 Number     Number       Type             X           Y           Z
 ---------------------------------------------------------------------
      1          6           0       -0.640855    1.453291   -0.119463
      2          6           0       -1.936103    0.729000    0.244817
      3          6           0       -1.909104   -0.695691   -0.307142
      4          6           0       -0.636041   -1.410501    0.131066
      5          6           0        0.613799    0.671876    0.297141
      6          1           0       -2.779770   -1.263869    0.033393
      7          1           0       -2.041353    0.694029    1.335842
      8          1           0       -2.801778    1.278429   -0.136019
      9          1           0       -0.600535    1.613170   -1.202798
     10          1           0       -0.610332    2.439979    0.351958
     11          1           0       -0.658059   -1.555841    1.229660
     12          1           0       -0.593956   -2.406604   -0.316773
     13          1           0        0.617836    0.601168    1.404386
     14          1           0       -1.943831   -0.670564   -1.401039
     15          6           0        1.866029    1.438522   -0.132041
     16          1           0        1.792955    2.475319    0.203633
     17          1           0        2.781198    1.024366    0.292069
     18          1           0        1.959033    1.438103   -1.221278
     19          6           0        1.753567   -1.478669    0.046841
     20          1           0        2.648859   -1.039449   -0.390164
     21          1           0        1.915605   -1.585845    1.135380
     22          1           0        1.638330   -2.479007   -0.374148
     23          7           0        0.572578   -0.687193   -0.273060
 ---------------------------------------------------------------------

 The electronic state is 1-A.
 Alpha  occ. eigenvalues --  -14.30145 -10.19588 -10.18660 -10.18141 -10.16183
 Alpha  occ. eigenvalues --  -10.16079 -10.16012 -10.15586  -0.92556  -0.79750
 Alpha  occ. eigenvalues --   -0.77373  -0.69974  -0.67771  -0.62068  -0.59158
 Alpha  occ. eigenvalues --   -0.54969  -0.48368  -0.47090  -0.45097  -0.44708
 Alpha  occ. eigenvalues --   -0.43742  -0.40759  -0.39267  -0.38745  -0.37570
 Alpha  occ. eigenvalues --   -0.37056  -0.36028  -0.33863  -0.32723  -0.31455
 Alpha  occ. eigenvalues --   -0.30756  -0.21817
 Alpha virt. eigenvalues --    0.00626   0.01346   0.01846   0.02105   0.04056
 Alpha virt. eigenvalues --    0.04281   0.04950   0.05377   0.05780   0.07077
 Alpha virt. eigenvalues --    0.07416   0.07985   0.08203   0.09005   0.09145

 Mulliken atomic charges:
              1
     1  C   -0.278970
     2  C   -0.159938
     3  C   -0.313977
     4  C   -0.061132
     5  C    0.182612
     6  H    0.101893
     7  H    0.105149
     8  H    0.102874
     9  H    0.109030
    10  H    0.102016
    11  H    0.087861
    12  H    0.097807
    13  H    0.059908
    14  H    0.109665
    15  C   -0.591549
    16  H    0.116968
    17  H    0.119230
    18  H    0.136619
    19  C   -0.257639
    20  H    0.116468
    21  H    0.104922
    22  H    0.109003
    23  N   -0.098820
 Sum of Mulliken atomic charges =   0.00000

 Dipole moment (field-independent basis, Debye):
    X=             -0.0949    Y=              0.0142    Z=              0.4885  Tot=              0.4978
 Quadrupole moment (field-independent basis, Debye-Ang):
   XX=            -52.2439   YY=            -52.0435   ZZ=            -54.9606
   XY=             -0.0470   XZ=              0.3326   YZ=              0.0749

 Normal termination of Gaussian 09 at Sun Mar  6 18:08:49 2016.
