 Gaussian 09, Revision D.01,
 Gaussian 09:  AM64L-G09RevD.01 24-Apr-2013

 ----------------------------------------------------------------------
 # b3lyp/6-31G** gfprint gfinput scf=(direct,tight,maxcycle=300,xqc) fr
 eq=(noraman,readisotopes)
 ----------------------------------------------------------------------

 ----------------------------------
 biphendimethyl_ts_b3lyp_631gdp.log
 ----------------------------------
 Symbolic Z-matrix:
 Charge =  0 Multiplicity = 1

                         Standard orientation:
 ---------------------------------------------------------------------
 Center     Atomic      Atomic             Coordinates (Angstroms)
 Number     Number       Type             X           Y           Z
 ---------------------------------------------------------------------
      1          6           0       -2.776871   -1.383311   -0.091209
      2          6           0       -1.399060   -1.185612   -0.184689
      3          6           0       -0.773940    0.098838   -0.027709
      4          6           0       -1.705010    1.195648    0.031191
      5          6           0       -3.083200    0.941699    0.161851
      6          6           0       -3.637620   -0.324831    0.137261
      7          1           0       -3.163301   -2.392831   -0.197859
      8          1           0       -3.744790    1.797869    0.253431
      9          1           0       -4.707840   -0.472501    0.244801
     10          6           0        0.773940    0.098837    0.027711
     11          6           0        1.705010    1.195647   -0.031189
     12          6           0        1.399060   -1.185603    0.184691
     13          6           0        3.083200    0.941697   -0.161859
     14          6           0        2.776869   -1.383313    0.091201
     15          6           0        3.637620   -0.324833   -0.137279
     16          1           0        3.744790    1.797867   -0.253439
     17          1           0        3.163299   -2.392833    0.197861
     18          1           0        4.707840   -0.472514   -0.244819
     19          6           0       -0.593741   -2.429082   -0.464179
     20          1           0       -0.241871   -2.428712   -1.506519
     21          1           0       -1.217461   -3.318612   -0.335439
     22          6           0        0.593739   -2.429083    0.464191
     23          1           0        0.241869   -2.428702    1.506531
     24          1           0        1.217459   -3.318613    0.335461
     25          6           0       -1.449699    2.682768   -0.145239
     26          1           0       -2.398519    3.171968   -0.374679
     27          1           0        1.051431    3.179637   -0.740419
     28          1           0       -0.788749    2.886498   -0.984249
     29          6           0        1.449701    2.682767    0.145251
     30          1           0        2.398521    3.171967    0.374691
     31          1           0       -1.051419    3.179628    0.740431
     32          1           0        0.788751    2.886487    0.984261
 ---------------------------------------------------------------------

 SCF Done:  E(RB3LYP) =  -619.345720415     A.U. after   14 cycles

 The electronic state is 1-A.
 Alpha  occ. eigenvalues --  -10.20782 -10.20764 -10.19973 -10.19973 -10.19093
 Alpha  occ. eigenvalues --  -10.19093 -10.18083 -10.18083 -10.18050 -10.18025
 Alpha  occ. eigenvalues --  -10.17720 -10.17720 -10.17708 -10.17708 -10.17617
 Alpha  occ. eigenvalues --  -10.17616  -0.86735  -0.84219  -0.80517  -0.76959
 Alpha  occ. eigenvalues --   -0.76512  -0.72947  -0.72664  -0.68159  -0.66701
 Alpha  occ. eigenvalues --   -0.62577  -0.60882  -0.58082  -0.55752  -0.54269
 Alpha  occ. eigenvalues --   -0.50640  -0.47863  -0.47824  -0.45400  -0.45262
 Alpha  occ. eigenvalues --   -0.43487  -0.42487  -0.42384  -0.40920  -0.40771
 Alpha  occ. eigenvalues --   -0.39722  -0.38545  -0.38111  -0.37387  -0.37063
 Alpha  occ. eigenvalues --   -0.36586  -0.35366  -0.33468  -0.32911  -0.32540
 Alpha  occ. eigenvalues --   -0.31647  -0.30613  -0.27186  -0.23128  -0.22646
 Alpha  occ. eigenvalues --   -0.20868
 Alpha virt. eigenvalues --   -0.03645   0.00325   0.01443   0.03609   0.09402
 Alpha virt. eigenvalues --    0.10337   0.10613   0.12117   0.12196   0.13408
 Alpha virt. eigenvalues --    0.14045   0.14935   0.15797   0.16619   0.16985

 Mulliken charges:
               1
     1  C   -0.135499
     2  C    0.062092
     3  C    0.034681
     4  C    0.064121
     5  C   -0.128241
     6  C   -0.073555
     7  H    0.075469
     8  H    0.075598
     9  H    0.082508
    10  C    0.034685
    11  C    0.064119
    12  C    0.062086
    13  C   -0.128240
    14  C   -0.135497
    15  C   -0.073556
    16  H    0.075599
    17  H    0.075469
    18  H    0.082508
    19  C   -0.236445
    20  H    0.114264
    21  H    0.092894
    22  C   -0.236443
    23  H    0.114264
    24  H    0.092894
    25  C   -0.368285
    26  H    0.102592
    27  H    0.117809
    28  H    0.119996
    29  C   -0.368285
    30  H    0.102592
    31  H    0.117809
    32  H    0.119996
 Sum of Mulliken charges =   0.00000

 Dipole moment (field-independent basis, Debye):
    X=              0.0000    Y=              0.1603    Z=              0.0000  Tot=              0.1603
 Quadrupole moment (field-independent basis, Debye-Ang):
   XX=            -88.1595   YY=            -85.4156   ZZ=            -98.1683
   XY=              0.0000   XZ=             -0.5093   YZ=              0.0000

  Exact polarizability: 236.286   0.000 189.547  -6.275   0.000  75.933
 Approx polarizability: 368.270   0.000 310.141 -14.923   0.000 123.580

 ******    1 imaginary frequencies (negative Signs) ******

                      1                      2                      3
                      A                      A                      A
 Frequencies --   -103.0517                35.9255               140.2438
 Red. masses --      2.7699                 3.7968                 3.1842
 Frc consts  --      0.0173                 0.0029                 0.0369
 IR Inten    --      0.0197                 0.0378                 0.0922

                      4                      5                      6
                      A                      A                      A
 Frequencies --    166.4369               197.5186               217.8819
 Red. masses --      1.0528                 3.1428                 3.3358
 Frc consts  --      0.0172                 0.0722                 0.0933
 IR Inten    --      0.2553                 0.4601                 3.7316

                      7                      8                      9
                      A                      A                      A
 Frequencies --    218.0606               229.4453               298.0403
 Red. masses --      3.2713                 3.1298                 5.1219
 Frc consts  --      0.0916                 0.0971                 0.2681
 IR Inten    --      0.0005                 3.3881                 0.0030

                     10                     11                     12
                      A                      A                      A
 Frequencies --    352.7032               387.0375               432.9950
 Red. masses --      2.7420                 4.7617                 1.0377
 Frc consts  --      0.2010                 0.4203                 0.1146
 IR Inten    --      0.0565                 0.0004                 0.0047

                     13                     14                     15
                      A                      A                      A
 Frequencies --    452.4074               482.9419               484.1520
 Red. masses --      3.0857                 3.7176                 2.8965
 Frc consts  --      0.3721                 0.5109                 0.4000
 IR Inten    --      0.5769                 1.0462                 0.9465

                     16                     17                     18
                      A                      A                      A
 Frequencies --    508.5656               519.2879               532.5095
 Red. masses --      3.2302                 4.3574                 4.6047
 Frc consts  --      0.4922                 0.6923                 0.7693
 IR Inten    --      0.5249                 0.7577                 3.4666

                     19                     20                     21
                      A                      A                      A
 Frequencies --    554.0439               579.5189               590.5579
 Red. masses --      4.4423                 3.8068                 3.8346
 Frc consts  --      0.8034                 0.7533                 0.7879
 IR Inten    --      0.5587                 0.6471                 0.2215

                     22                     23                     24
                      A                      A                      A
 Frequencies --    614.2412               633.3886               736.7650
 Red. masses --      3.8144                 2.9482                 3.2889
 Frc consts  --      0.8479                 0.6969                 1.0519
 IR Inten    --      0.5665                 0.8109                21.3443

                     25                     26                     27
                      A                      A                      A
 Frequencies --    749.4450               784.9053               786.8375
 Red. masses --      3.8517                 1.8380                 2.5692
 Frc consts  --      1.2746                 0.6672                 0.9372
 IR Inten    --      4.9561                 0.5491                 0.1816

                     28                     29                     30
                      A                      A                      A
 Frequencies --    795.3351               797.6304               868.0657
 Red. masses --      1.4586                 3.9144                 2.1058
 Frc consts  --      0.5436                 1.4673                 0.9349
 IR Inten    --     36.7631                 0.0031                 3.1393

                     31                     32                     33
                      A                      A                      A
 Frequencies --    896.1979               902.3448               905.5743
 Red. masses --      1.5572                 1.3328                 2.7456
 Frc consts  --      0.7369                 0.6394                 1.3266
 IR Inten    --      2.3505                 0.4104                 1.0295

                     34                     35                     36
                      A                      A                      A
 Frequencies --    970.3765               970.9111               988.9820
 Red. masses --      1.3167                 1.2917                 2.0178
 Frc consts  --      0.7305                 0.7174                 1.1628
 IR Inten    --      0.5111                 0.1292                 7.6036

                     37                     38                     39
                      A                      A                      A
 Frequencies --   1004.3340              1022.1970              1026.8987
 Red. masses --      4.6935                 1.8274                 1.5863
 Frc consts  --      2.7894                 1.1250                 0.9856
 IR Inten    --      1.5931                 0.1319                 0.0534

                     40                     41                     42
                      A                      A                      A
 Frequencies --   1051.6172              1060.2436              1066.8867
 Red. masses --      2.1095                 1.5041                 1.5376
 Frc consts  --      1.3745                 0.9961                 1.0312
 IR Inten    --      2.3469                 1.9252                 3.5316

                     43                     44                     45
                      A                      A                      A
 Frequencies --   1087.3754              1131.6099              1171.1779
 Red. masses --      2.0650                 3.8001                 1.3197
 Frc consts  --      1.4385                 2.8671                 1.0665
 IR Inten    --      0.3502                 0.0025                 0.0809

                     46                     47                     48
                      A                      A                      A
 Frequencies --   1182.3141              1188.9372              1196.5602
 Red. masses --      1.3952                 1.3538                 1.2835
 Frc consts  --      1.1491                 1.1275                 1.0827
 IR Inten    --      4.4394                 4.0433                 0.1435

                     49                     50                     51
                      A                      A                      A
 Frequencies --   1208.6249              1232.2850              1247.9971
 Red. masses --      2.0860                 1.5857                 2.7831
 Frc consts  --      1.7954                 1.4187                 2.5539
 IR Inten    --      0.7957                 0.7219                 0.7212

                     52                     53                     54
                      A                      A                      A
 Frequencies --   1257.9556              1269.6016              1283.8816
 Red. masses --      2.4596                 2.7702                 2.1967
 Frc consts  --      2.2932                 2.6308                 2.1334
 IR Inten    --      1.1502                 2.7991                 1.5703

                     55                     56                     57
                      A                      A                      A
 Frequencies --   1304.2102              1314.5825              1377.8553
 Red. masses --      3.2644                 2.1096                 1.9131
 Frc consts  --      3.2715                 2.1480                 2.1399
 IR Inten    --      1.2316                13.7950                 2.1185

                     58                     59                     60
                      A                      A                      A
 Frequencies --   1396.8314              1422.2307              1440.3876
 Red. masses --      1.7425                 1.2325                 1.2498
 Frc consts  --      2.0032                 1.4688                 1.5278
 IR Inten    --      1.5590                 1.6585                 0.1898

                     61                     62                     63
                      A                      A                      A
 Frequencies --   1444.3907              1446.7206              1485.1666
 Red. masses --      2.0449                 2.3603                 2.1557
 Frc consts  --      2.5136                 2.9107                 2.8014
 IR Inten    --      1.6340                 0.0146                18.6218

                     64                     65                     66
                      A                      A                      A
 Frequencies --   1496.5819              1499.1928              1504.4452
 Red. masses --      1.0837                 1.0574                 1.1090
 Frc consts  --      1.4301                 1.4002                 1.4788
 IR Inten    --      5.0658                 0.5002                 3.2348

                     67                     68                     69
                      A                      A                      A
 Frequencies --   1505.2802              1507.4382              1541.5997
 Red. masses --      1.2892                 2.0495                 1.0542
 Frc consts  --      1.7211                 2.7439                 1.4761
 IR Inten    --     33.4412                 9.4699                14.7068

                     70                     71                     72
                      A                      A                      A
 Frequencies --   1560.0089              1620.7136              1630.8564
 Red. masses --      1.0672                 5.7291                 6.5683
 Frc consts  --      1.5302                 8.8664                10.2928
 IR Inten    --      9.1542                 1.2965                 0.1042

                     73                     74                     75
                      A                      A                      A
 Frequencies --   1646.8865              1651.6246              3008.0010
 Red. masses --      4.7393                 5.0941                 1.0705
 Frc consts  --      7.5734                 8.1873                 5.7070
 IR Inten    --      0.6092                 2.2044                14.7740

                     76                     77                     78
                      A                      A                      A
 Frequencies --   3019.0049              3074.5905              3086.4809
 Red. masses --      1.0656                 1.0378                 1.0436
 Frc consts  --      5.7225                 5.7803                 5.8575
 IR Inten    --     41.4051                 0.4046                64.8685

                     79                     80                     81
                      A                      A                      A
 Frequencies --   3087.5036              3089.5435              3128.9657
 Red. masses --      1.0979                 1.0917                 1.1028
 Frc consts  --      6.1665                 6.1394                 6.3612
 IR Inten    --     25.2800                38.9552                41.5829

                     82                     83                     84
                      A                      A                      A
 Frequencies --   3134.8365              3172.8163              3176.6322
 Red. masses --      1.0985                 1.0933                 1.0851
 Frc consts  --      6.3603                 6.4847                 6.4516
 IR Inten    --      2.3400                 3.2486                 4.3281

                     85                     86                     87
                      A                      A                      A
 Frequencies --   3177.3169              3184.2653              3184.4670
 Red. masses --      1.0859                 1.0905                 1.0905
 Frc consts  --      6.4591                 6.5149                 6.5154
 IR Inten    --      0.1563                 1.4602                52.3257

                     88                     89                     90
                      A                      A                      A
 Frequencies --   3194.4121              3205.0872              3205.3378
 Red. masses --      1.0987                 1.0982                 1.0982
 Frc consts  --      6.6056                 6.6470                 6.6475
 IR Inten    --     26.2790                65.4913                 0.6757

 - Thermochemistry -
 -------------------
 Temperature   315.000 Kelvin.  Pressure   1.00000 Atm.
 Thermochemistry will use frequencies scaled by 0.9700.

 Molecular mass:   208.12520 amu.
 Principal axes and moments of inertia in atomic units:
                           1         2         3
     Eigenvalues --  2066.186453743.873575693.71581
           X            1.00000   0.00000   0.00038
           Y            0.00000   1.00000   0.00000
           Z           -0.00038   0.00000   1.00000
 This molecule is an asymmetric top.
 Rotational symmetry number  1.
 Warning -- assumption of classical behavior for rotation
           may cause significant error
 Rotational temperatures (Kelvin)      0.04192     0.02313     0.01521
 Rotational constants (GHZ):           0.87346     0.48205     0.31697
    1 imaginary frequencies ignored.
 Zero-point vibrational energy     698536.0 (Joules/Mol)
                                  166.95410 (Kcal/Mol)
 Warning -- explicit consideration of  22 degrees of freedom as
           vibrations may cause significant error
 Vibrational temperatures:     50.14   195.73   232.28   275.66   304.08
          (Kelvin)            304.33   320.22   415.95   492.24   540.15
                              604.29   631.39   674.00   675.69   709.76
                              724.72   743.18   773.23   808.78   824.19
                              857.24   883.96  1028.24  1045.93  1095.42
                             1098.12  1109.98  1113.18  1211.48  1250.74
                             1259.32  1263.83  1354.27  1355.02  1380.24
                             1401.66  1426.59  1433.15  1467.65  1479.69
                             1488.96  1517.55  1579.29  1634.51  1650.05
                             1659.29  1669.93  1686.77  1719.79  1741.72
                             1755.62  1771.87  1791.80  1820.17  1834.65
                             1922.95  1949.43  1984.88  2010.22  2015.81
                             2019.06  2072.72  2088.65  2092.29  2099.62
                             2100.79  2103.80  2151.47  2177.17  2261.89
                             2276.04  2298.41  2305.03  4198.00  4213.36
                             4290.94  4307.53  4308.96  4311.80  4366.82
                             4375.02  4428.02  4433.35  4434.30  4444.00
                             4444.28  4458.16  4473.06  4473.41

 Zero-point correction=                           0.266058 (Hartree/Particle)
 Thermal correction to Energy=                    0.279966
 Thermal correction to Enthalpy=                  0.280964
 Thermal correction to Gibbs Free Energy=         0.224933
 Sum of electronic and zero-point Energies=           -619.079662
 Sum of electronic and thermal Energies=              -619.065754
 Sum of electronic and thermal Enthalpies=            -619.064757
 Sum of electronic and thermal Free Energies=         -619.120787

                     E (Thermal)             CV                S
                      KCal/Mol        Cal/Mol-Kelvin    Cal/Mol-Kelvin
 Total                  175.681             56.581            111.617
 Electronic               0.000              0.000              0.000
 Translational            0.939              2.981             42.176
 Rotational               0.939              2.981             32.318
 Vibrational            173.803             50.619             37.123
 Vibration     1          0.627              1.983              5.641
 Vibration     2          0.646              1.924              2.964
 Vibration     3          0.654              1.900              2.637
 Vibration     4          0.665              1.865              2.315
 Vibration     5          0.674              1.840              2.133
 Vibration     6          0.674              1.840              2.131
 Vibration     7          0.679              1.825              2.038
 Vibration     8          0.714              1.722              1.573
 Vibration     9          0.748              1.628              1.291
 Vibration    10          0.772              1.564              1.142
 Vibration    11          0.807              1.475              0.972
 Vibration    12          0.823              1.437              0.908
 Vibration    13          0.848              1.375              0.816
 Vibration    14          0.849              1.373              0.813
 Vibration    15          0.871              1.323              0.746
 Vibration    16          0.880              1.302              0.719
 Vibration    17          0.893              1.275              0.686
 Vibration    18          0.913              1.231              0.637
 Vibration    19          0.937              1.179              0.583
 Vibration    20          0.948              1.157              0.561
 Vibration    21          0.972              1.109              0.516
 Vibration    22          0.991              1.071              0.483

 Normal termination of Gaussian 09 at Sat May 28 00:13:21 2016.
