 Gaussian 09, Revision D.01,
 Gaussian 09:  AM64L-G09RevD.01 24-Apr-2013

 ----------------------------------------------------------------------
 # b3lyp/6-31G** gfprint gfinput scf=(direct,tight,maxcycle=300,xqc) fr
 eq=(noraman,readisotopes)
 ----------------------------------------------------------------------

 ----------------------------------
 biphendimethyl_gs_b3lyp_631gdp.log
 ----------------------------------
 Symbolic Z-matrix:
 Charge =  0 Multiplicity = 1

                         Standard orientation:
 ---------------------------------------------------------------------
 Center     Atomic      Atomic             Coordinates (Angstroms)
 Number     Number       Type             X           Y           Z
 ---------------------------------------------------------------------
      1          6           0       -2.771950    1.215451    0.514140
      2          6           0       -1.386220    1.155441    0.394830
      3          6           0       -0.747090   -0.049599    0.001540
      4          6           0       -1.549260   -1.128309   -0.441350
      5          6           0       -2.943670   -1.035769   -0.306210
      6          6           0       -3.555050    0.104401    0.199980
      7          1           0       -3.240490    2.144131    0.829810
      8          1           0       -3.554970   -1.872369   -0.636270
      9          1           0       -4.635970    0.149081    0.297430
     10          6           0        0.747090   -0.049599   -0.001540
     11          6           0        1.549260   -1.128309    0.441350
     12          6           0        1.386220    1.155441   -0.394830
     13          6           0        2.943670   -1.035769    0.306210
     14          6           0        2.771950    1.215451   -0.514140
     15          6           0        3.555050    0.104401   -0.199980
     16          1           0        3.554970   -1.872369    0.636270
     17          1           0        3.240490    2.144131   -0.829810
     18          1           0        4.635970    0.149081   -0.297430
     19          6           0       -0.530390    2.391751    0.557190
     20          1           0       -0.022330    2.403221    1.531940
     21          1           0       -1.156460    3.288421    0.507490
     22          6           0        0.530390    2.391751   -0.557190
     23          1           0        0.022330    2.403221   -1.531940
     24          1           0        1.156460    3.288421   -0.507490
     25          6           0       -1.000670   -2.341489   -1.162770
     26          1           0       -1.617930   -2.552409   -2.042140
     27          1           0       -0.025020   -2.189469    1.502400
     28          1           0       -1.018190   -3.241859   -0.539180
     29          6           0        1.000670   -2.341489    1.162770
     30          1           0        1.617930   -2.552409    2.042150
     31          1           0        0.025020   -2.189469   -1.502400
     32          1           0        1.018190   -3.241859    0.539180
 ---------------------------------------------------------------------

 SCF Done:  E(RB3LYP) =  -619.383374366     A.U. after   14 cycles

 The electronic state is 1-A.
 Alpha  occ. eigenvalues --  -10.19400 -10.19400 -10.19132 -10.19105 -10.18923
 Alpha  occ. eigenvalues --  -10.18923 -10.18558 -10.18537 -10.18277 -10.18277
 Alpha  occ. eigenvalues --  -10.17918 -10.17918 -10.17850 -10.17850 -10.17652
 Alpha  occ. eigenvalues --  -10.17651  -0.87172  -0.84061  -0.80229  -0.77216
 Alpha  occ. eigenvalues --   -0.76269  -0.72476  -0.72390  -0.68198  -0.66869
 Alpha  occ. eigenvalues --   -0.62860  -0.60795  -0.58151  -0.55801  -0.54494
 Alpha  occ. eigenvalues --   -0.50407  -0.47731  -0.47643  -0.45829  -0.44709
 Alpha  occ. eigenvalues --   -0.43393  -0.42406  -0.41319  -0.40897  -0.40660
 Alpha  occ. eigenvalues --   -0.39777  -0.38827  -0.38049  -0.37586  -0.37565
 Alpha  occ. eigenvalues --   -0.36257  -0.35095  -0.34113  -0.33544  -0.33089
 Alpha  occ. eigenvalues --   -0.31618  -0.30707  -0.26306  -0.23057  -0.22991
 Alpha  occ. eigenvalues --   -0.21231
 Alpha virt. eigenvalues --   -0.02168   0.00499   0.00574   0.03351   0.10362
 Alpha virt. eigenvalues --    0.10751   0.11142   0.12196   0.12597   0.13608
 Alpha virt. eigenvalues --    0.14879   0.15523   0.15873   0.16518   0.16989

 Mulliken charges:
               1
     1  C   -0.147756
     2  C    0.102878
     3  C   -0.018005
     4  C    0.090883
     5  C   -0.129107
     6  C   -0.075011
     7  H    0.075877
     8  H    0.074551
     9  H    0.080867
    10  C   -0.018005
    11  C    0.090883
    12  C    0.102878
    13  C   -0.129107
    14  C   -0.147756
    15  C   -0.075011
    16  H    0.074551
    17  H    0.075877
    18  H    0.080867
    19  C   -0.241720
    20  H    0.113899
    21  H    0.097158
    22  C   -0.241720
    23  H    0.113899
    24  H    0.097158
    25  C   -0.377771
    26  H    0.112767
    27  H    0.122731
    28  H    0.117761
    29  C   -0.377771
    30  H    0.112765
    31  H    0.122731
    32  H    0.117761
 Sum of Mulliken charges =   0.00000

 Dipole moment (field-independent basis, Debye):
    X=              0.0000    Y=              0.0265    Z=              0.0000  Tot=              0.0265
 Quadrupole moment (field-independent basis, Debye-Ang):
   XX=            -88.9580   YY=            -86.7553   ZZ=            -96.6438
   XY=              0.0000   XZ=              0.4208   YZ=              0.0000

  Exact polarizability: 222.963   0.000 177.191  -2.997   0.000  91.367
 Approx polarizability: 342.492   0.000 290.827  -6.663   0.000 145.721

                      1                      2                      3
                      A                      A                      A
 Frequencies --     68.1217               106.7875               133.3168
 Red. masses --      4.0095                 4.0820                 2.0758
 Frc consts  --      0.0110                 0.0274                 0.0217
 IR Inten    --      0.1217                 0.0555                 0.6402

                      4                      5                      6
                      A                      A                      A
 Frequencies --    134.1023               153.6211               165.2186
 Red. masses --      3.3413                 2.1862                 3.6315
 Frc consts  --      0.0354                 0.0304                 0.0584
 IR Inten    --      0.0049                 0.0061                 2.3936

                      7                      8                      9
                      A                      A                      A
 Frequencies --    215.6545               236.8802               254.6522
 Red. masses --      3.1769                 3.7829                 3.1773
 Frc consts  --      0.0871                 0.1251                 0.1214
 IR Inten    --      0.0561                 0.0026                 0.0258

                     10                     11                     12
                      A                      A                      A
 Frequencies --    286.9488               345.7773               369.0578
 Red. masses --      3.4875                 3.8744                 3.1676
 Frc consts  --      0.1692                 0.2729                 0.2542
 IR Inten    --      3.9091                 1.9312                 1.0704

                     13                     14                     15
                      A                      A                      A
 Frequencies --    394.6528               421.6836               462.1331
 Red. masses --      3.6001                 3.8692                 2.8740
 Frc consts  --      0.3304                 0.4054                 0.3616
 IR Inten    --      0.1377                 1.3499                 0.8029

                     16                     17                     18
                      A                      A                      A
 Frequencies --    500.3461               518.9909               519.2307
 Red. masses --      4.5210                 3.7026                 4.2049
 Frc consts  --      0.6668                 0.5876                 0.6679
 IR Inten    --      0.3000                 0.2750                 1.9235

                     19                     20                     21
                      A                      A                      A
 Frequencies --    536.4564               544.6139               561.3855
 Red. masses --      4.5200                 4.6966                 4.1660
 Frc consts  --      0.7664                 0.8207                 0.7736
 IR Inten    --      0.9315                 1.0508                 0.2252

                     22                     23                     24
                      A                      A                      A
 Frequencies --    592.4135               602.8559               725.4140
 Red. masses --      3.8957                 2.9898                 5.4420
 Frc consts  --      0.8055                 0.6402                 1.6873
 IR Inten    --      0.0519                 3.9327                 1.6821

                     25                     26                     27
                      A                      A                      A
 Frequencies --    738.4546               755.8897               782.3646
 Red. masses --      3.5415                 3.0527                 1.3377
 Frc consts  --      1.1378                 1.0277                 0.4824
 IR Inten    --      8.4981                 0.4220                39.3886

                     28                     29                     30
                      A                      A                      A
 Frequencies --    783.7883               791.9171               807.2497
 Red. masses --      2.5461                 1.8969                 2.7984
 Frc consts  --      0.9216                 0.7009                 1.0744
 IR Inten    --      3.5672                 2.4874                 2.1215

                     31                     32                     33
                      A                      A                      A
 Frequencies --    822.8239               849.7048               874.2381
 Red. masses --      3.2974                 2.1191                 2.0895
 Frc consts  --      1.3153                 0.9014                 0.9409
 IR Inten    --      0.1126                 3.1569                 0.0778

                     34                     35                     36
                      A                      A                      A
 Frequencies --    876.9075               909.7507               920.4186
 Red. masses --      2.2383                 3.7300                 1.6516
 Frc consts  --      1.0141                 1.8189                 0.8244
 IR Inten    --      6.6171                 2.1509                 0.1738

                     37                     38                     39
                      A                      A                      A
 Frequencies --    921.5380               971.8153               972.2349
 Red. masses --      1.8997                 1.2849                 1.2814
 Frc consts  --      0.9505                 0.7150                 0.7137
 IR Inten    --      2.2299                 0.6499                 0.0965

                     40                     41                     42
                      A                      A                      A
 Frequencies --    981.4584               999.6948              1018.7613
 Red. masses --      2.2311                 2.8168                 7.2276
 Frc consts  --      1.2662                 1.6586                 4.4197
 IR Inten    --      0.0173                 0.2623                 2.6443

                     43                     44                     45
                      A                      A                      A
 Frequencies --   1055.2179              1073.6939              1079.8856
 Red. masses --      2.1547                 2.1863                 2.2110
 Frc consts  --      1.4136                 1.4850                 1.5191
 IR Inten    --      0.0401                 8.1999                 0.3454

                     46                     47                     48
                      A                      A                      A
 Frequencies --   1089.9791              1092.5178              1094.1754
 Red. masses --      2.1534                 2.3209                 2.5342
 Frc consts  --      1.5073                 1.6322                 1.7876
 IR Inten    --      5.6947                 1.1330                 2.7465

                     49                     50                     51
                      A                      A                      A
 Frequencies --   1108.8391              1112.2634              1132.0491
 Red. masses --      2.8270                 2.0642                 1.6604
 Frc consts  --      2.0479                 1.5046                 1.2537
 IR Inten    --      1.3985                 0.0853                 2.6466

                     52                     53                     54
                      A                      A                      A
 Frequencies --   1170.9719              1195.1264              1195.6284
 Red. masses --      1.1678                 1.2189                 1.2014
 Frc consts  --      0.9434                 1.0258                 1.0119
 IR Inten    --      1.1985                 0.1585                 0.9726

                     55                     56                     57
                      A                      A                      A
 Frequencies --   1211.5096              1256.3296              1257.1715
 Red. masses --      1.4602                 2.3256                 2.2609
 Frc consts  --      1.2627                 2.1627                 2.1054
 IR Inten    --      3.4107                 2.1083                 0.3963

                     58                     59                     60
                      A                      A                      A
 Frequencies --   1265.2342              1276.9566              1277.3733
 Red. masses --      4.0878                 2.5592                 2.1983
 Frc consts  --      3.8555                 2.4587                 2.1134
 IR Inten    --      2.2536                 2.7838                 1.2918

                     61                     62                     63
                      A                      A                      A
 Frequencies --   1335.7826              1335.8106              1359.0124
 Red. masses --      1.9252                 5.6692                 2.6583
 Frc consts  --      2.0240                 5.9602                 2.8927
 IR Inten    --      2.9556                 0.1037                 1.0318

                     64                     65                     66
                      A                      A                      A
 Frequencies --   1379.1934              1462.6660              1478.5114
 Red. masses --      1.7878                 2.5952                 2.8884
 Frc consts  --      2.0037                 3.2712                 3.7201
 IR Inten    --      3.2536                 8.8119                 5.6864

                     67                     68                     69
                      A                      A                      A
 Frequencies --   1493.9727              1494.6272              1501.8085
 Red. masses --      1.2261                 1.1583                 2.3154
 Frc consts  --      1.6123                 1.5246                 3.0768
 IR Inten    --      0.0171                 8.4116                12.3363

                     70                     71                     72
                      A                      A                      A
 Frequencies --   1514.7171              1615.1378              1635.0220
 Red. masses --      2.6883                 6.3202                 7.2547
 Frc consts  --      3.6340                 9.7141                11.4267
 IR Inten    --      3.4606                 3.4932                 1.0306

                     73                     74                     75
                      A                      A                      A
 Frequencies --   1647.1626              1650.7027              2191.5987
 Red. masses --      5.6600                 5.8903                 2.1426
 Frc consts  --      9.0477                 9.4563                 6.0633
 IR Inten    --      0.0025                 2.6558                 4.4048

                     76                     77                     78
                      A                      A                      A
 Frequencies --   2193.5984              2294.5164              2295.8935
 Red. masses --      2.1416                 2.3704                 2.3660
 Frc consts  --      6.0717                 7.3527                 7.3481
 IR Inten    --     19.7372                17.8713                 2.4966

                     79                     80                     81
                      A                      A                      A
 Frequencies --   2330.4966              2331.4570              3018.2724
 Red. masses --      2.3788                 2.3781                 1.0690
 Frc consts  --      7.6121                 7.6163                 5.7380
 IR Inten    --      1.0341                 8.3459                18.8499

                     82                     83                     84
                      A                      A                      A
 Frequencies --   3026.6301              3088.7928              3089.3315
 Red. masses --      1.0640                 1.1002                 1.0936
 Frc consts  --      5.7428                 6.1847                 6.1495
 IR Inten    --     37.5242                25.0839                39.0904

                     85                     86                     87
                      A                      A                      A
 Frequencies --   3168.3006              3168.5158              3176.7342
 Red. masses --      1.0862                 1.0862                 1.0901
 Frc consts  --      6.4243                 6.4250                 6.4817
 IR Inten    --      4.0383                 3.5278                37.5275

                     88                     89                     90
                      A                      A                      A
 Frequencies --   3176.7463              3197.8678              3198.1090
 Red. masses --      1.0902                 1.0968                 1.0968
 Frc consts  --      6.4823                 6.6085                 6.6092
 IR Inten    --      4.8134                67.5270                 0.4716

 - Thermochemistry -
 -------------------
 Temperature   315.000 Kelvin.  Pressure   1.00000 Atm.
 Thermochemistry will use frequencies scaled by 0.9700.

 Molecular mass:   214.16286 amu.
 Principal axes and moments of inertia in atomic units:
                           1         2         3
     Eigenvalues --  2223.059283726.557535288.70744
           X            0.99998   0.00000  -0.00574
           Y            0.00000   1.00000   0.00000
           Z            0.00574   0.00000   0.99998
 This molecule is an asymmetric top.
 Rotational symmetry number  1.
 Warning -- assumption of classical behavior for rotation
           may cause significant error
 Rotational temperatures (Kelvin)      0.03896     0.02324     0.01638
 Rotational constants (GHZ):           0.81183     0.48429     0.34124
 Zero-point vibrational energy     646476.8 (Joules/Mol)
                                  154.51166 (Kcal/Mol)
 Warning -- explicit consideration of  23 degrees of freedom as
           vibrations may cause significant error
 Vibrational temperatures:     95.07   149.03   186.06   187.15   214.40
          (Kelvin)            230.58   300.97   330.59   355.40   400.47
                              482.57   515.06   550.78   588.51   644.96
                              698.29   724.31   724.64   748.68   760.07
                              783.48   826.78   841.35  1012.40  1030.60
                             1054.93  1091.88  1093.86  1105.21  1126.61
                             1148.34  1185.86  1220.10  1223.82  1269.66
                             1284.55  1286.11  1356.28  1356.86  1369.74
                             1395.19  1421.80  1472.67  1498.46  1507.10
                             1521.19  1524.73  1527.04  1547.51  1552.29
                             1579.90  1634.22  1667.93  1668.63  1690.80
                             1753.35  1754.52  1765.78  1782.14  1782.72
                             1864.23  1864.27  1896.65  1924.82  2041.31
                             2063.43  2085.01  2085.92  2095.94  2113.96
                             2254.11  2281.86  2298.80  2303.74  3058.62
                             3061.41  3202.25  3204.18  3252.47  3253.81
                             4212.34  4224.00  4310.76  4311.51  4421.72
                             4422.02  4433.49  4433.50  4462.98  4463.32

 Zero-point correction=                           0.246230 (Hartree/Particle)
 Thermal correction to Energy=                    0.261951
 Thermal correction to Enthalpy=                  0.262949
 Thermal correction to Gibbs Free Energy=         0.203593
 Sum of electronic and zero-point Energies=           -619.137144
 Sum of electronic and thermal Energies=              -619.121423
 Sum of electronic and thermal Enthalpies=            -619.120425
 Sum of electronic and thermal Free Energies=         -619.179781

                     E (Thermal)             CV                S
                      KCal/Mol        Cal/Mol-Kelvin    Cal/Mol-Kelvin
 Total                  164.377             62.463            118.242
 Electronic               0.000              0.000              0.000
 Translational            0.939              2.981             42.261
 Rotational               0.939              2.981             32.313
 Vibrational            162.499             56.502             43.667
 Vibration     1          0.631              1.972              4.375
 Vibration     2          0.638              1.951              3.493
 Vibration     3          0.644              1.930              3.062
 Vibration     4          0.644              1.930              3.051
 Vibration     5          0.650              1.912              2.790
 Vibration     6          0.654              1.901              2.651
 Vibration     7          0.673              1.843              2.152
 Vibration     8          0.682              1.814              1.980
 Vibration     9          0.691              1.789              1.850
 Vibration    10          0.708              1.740              1.639
 Vibration    11          0.744              1.640              1.323
 Vibration    12          0.760              1.598              1.218
 Vibration    13          0.778              1.550              1.112
 Vibration    14          0.798              1.498              1.011
 Vibration    15          0.831              1.417              0.878
 Vibration    16          0.864              1.340              0.768
 Vibration    17          0.880              1.302              0.720
 Vibration    18          0.880              1.302              0.719
 Vibration    19          0.896              1.267              0.677
 Vibration    20          0.904              1.250              0.658
 Vibration    21          0.920              1.216              0.621
 Vibration    22          0.950              1.153              0.557
 Vibration    23          0.960              1.132              0.537

 Normal termination of Gaussian 09 at Sat May 28 00:16:06 2016.
